# vtk DataFile Version 3.0
Resistivity values
ASCII

DATASET UNSTRUCTURED_GRID
POINTS 26496 float
     883.120      575.310        0.000      883.120      575.640        0.000      883.450      575.640        0.000      883.450      575.310        0.000      883.120      575.310       -0.920      883.120      575.640       -0.920      883.450      575.640       -0.920      883.450      575.310       -0.920 
     883.450      575.310        0.000      883.450      575.640        0.000      883.780      575.640        0.000      883.780      575.310        0.000      883.450      575.310       -0.920      883.450      575.640       -0.920      883.780      575.640       -0.920      883.780      575.310       -0.920 
     883.780      575.310        0.000      883.780      575.640        0.000      884.110      575.640        0.000      884.110      575.310        0.000      883.780      575.310       -0.920      883.780      575.640       -0.920      884.110      575.640       -0.920      884.110      575.310       -0.920 
     884.110      575.310        0.000      884.110      575.640        0.000      884.440      575.640        0.000      884.440      575.310        0.000      884.110      575.310       -0.920      884.110      575.640       -0.920      884.440      575.640       -0.920      884.440      575.310       -0.920 
     884.440      575.310        0.000      884.440      575.640        0.000      884.680      575.640        0.000      884.680      575.310        0.000      884.440      575.310       -0.920      884.440      575.640       -0.920      884.680      575.640       -0.920      884.680      575.310       -0.920 
     884.680      575.310        0.000      884.680      575.640        0.000      885.100      575.640        0.000      885.100      575.310        0.000      884.680      575.310       -0.920      884.680      575.640       -0.920      885.100      575.640       -0.920      885.100      575.310       -0.920 
     885.100      575.310        0.000      885.100      575.640        0.000      885.430      575.640        0.000      885.430      575.310        0.000      885.100      575.310       -0.920      885.100      575.640       -0.920      885.430      575.640       -0.920      885.430      575.310       -0.920 
     885.430      575.310        0.000      885.430      575.640        0.000      885.760      575.640        0.000      885.760      575.310        0.000      885.430      575.310       -0.920      885.430      575.640       -0.920      885.760      575.640       -0.920      885.760      575.310       -0.920 
     885.760      575.310        0.000      885.760      575.640        0.000      886.090      575.640        0.000      886.090      575.310        0.000      885.760      575.310       -0.920      885.760      575.640       -0.920      886.090      575.640       -0.920      886.090      575.310       -0.920 
     886.090      575.310        0.000      886.090      575.640        0.000      886.420      575.640        0.000      886.420      575.310        0.000      886.090      575.310       -0.920      886.090      575.640       -0.920      886.420      575.640       -0.920      886.420      575.310       -0.920 
     886.420      575.310        0.000      886.420      575.640        0.000      886.750      575.640        0.000      886.750      575.310        0.000      886.420      575.310       -0.920      886.420      575.640       -0.920      886.750      575.640       -0.920      886.750      575.310       -0.920 
     886.750      575.310        0.000      886.750      575.640        0.000      887.030      575.640        0.000      887.030      575.310        0.000      886.750      575.310       -0.920      886.750      575.640       -0.920      887.030      575.640       -0.920      887.030      575.310       -0.920 
     887.030      575.310        0.000      887.030      575.640        0.000      887.150      575.640        0.000      887.150      575.310        0.000      887.030      575.310       -0.920      887.030      575.640       -0.920      887.150      575.640       -0.920      887.150      575.310       -0.920 
     887.150      575.310        0.000      887.150      575.640        0.000      887.390      575.640        0.000      887.390      575.310        0.000      887.150      575.310       -0.920      887.150      575.640       -0.920      887.390      575.640       -0.920      887.390      575.310       -0.920 
     887.390      575.310        0.000      887.390      575.640        0.000      887.740      575.640        0.000      887.740      575.310        0.000      887.390      575.310       -0.920      887.390      575.640       -0.920      887.740      575.640       -0.920      887.740      575.310       -0.920 
     887.740      575.310        0.000      887.740      575.640        0.000      888.070      575.640        0.000      888.070      575.310        0.000      887.740      575.310       -0.920      887.740      575.640       -0.920      888.070      575.640       -0.920      888.070      575.310       -0.920 
     888.070      575.310        0.000      888.070      575.640        0.000      888.510      575.640        0.000      888.510      575.310        0.000      888.070      575.310       -0.920      888.070      575.640       -0.920      888.510      575.640       -0.920      888.510      575.310       -0.920 
     888.510      575.310        0.000      888.510      575.640        0.000      888.730      575.640        0.000      888.730      575.310        0.000      888.510      575.310       -0.920      888.510      575.640       -0.920      888.730      575.640       -0.920      888.730      575.310       -0.920 
     888.730      575.310        0.000      888.730      575.640        0.000      889.060      575.640        0.000      889.060      575.310        0.000      888.730      575.310       -0.920      888.730      575.640       -0.920      889.060      575.640       -0.920      889.060      575.310       -0.920 
     889.060      575.310        0.000      889.060      575.640        0.000      889.390      575.640        0.000      889.390      575.310        0.000      889.060      575.310       -0.920      889.060      575.640       -0.920      889.390      575.640       -0.920      889.390      575.310       -0.920 
     889.390      575.310        0.000      889.390      575.640        0.000      889.620      575.640        0.000      889.620      575.310        0.000      889.390      575.310       -0.920      889.390      575.640       -0.920      889.620      575.640       -0.920      889.620      575.310       -0.920 
     889.620      575.310        0.000      889.620      575.640        0.000      890.050      575.640        0.000      890.050      575.310        0.000      889.620      575.310       -0.920      889.620      575.640       -0.920      890.050      575.640       -0.920      890.050      575.310       -0.920 
     890.050      575.310        0.000      890.050      575.640        0.000      890.380      575.640        0.000      890.380      575.310        0.000      890.050      575.310       -0.920      890.050      575.640       -0.920      890.380      575.640       -0.920      890.380      575.310       -0.920 
     890.380      575.310        0.000      890.380      575.640        0.000      890.710      575.640        0.000      890.710      575.310        0.000      890.380      575.310       -0.920      890.380      575.640       -0.920      890.710      575.640       -0.920      890.710      575.310       -0.920 
     883.120      575.640        0.000      883.120      575.970        0.000      883.450      575.970        0.000      883.450      575.640        0.000      883.120      575.640       -0.920      883.120      575.970       -0.920      883.450      575.970       -0.920      883.450      575.640       -0.920 
     883.450      575.640        0.000      883.450      575.970        0.000      883.780      575.970        0.000      883.780      575.640        0.000      883.450      575.640       -0.920      883.450      575.970       -0.920      883.780      575.970       -0.920      883.780      575.640       -0.920 
     883.780      575.640        0.000      883.780      575.970        0.000      884.110      575.970        0.000      884.110      575.640        0.000      883.780      575.640       -0.920      883.780      575.970       -0.920      884.110      575.970       -0.920      884.110      575.640       -0.920 
     884.110      575.640        0.000      884.110      575.970        0.000      884.440      575.970        0.000      884.440      575.640        0.000      884.110      575.640       -0.920      884.110      575.970       -0.920      884.440      575.970       -0.920      884.440      575.640       -0.920 
     884.440      575.640        0.000      884.440      575.970        0.000      884.680      575.970        0.000      884.680      575.640        0.000      884.440      575.640       -0.920      884.440      575.970       -0.920      884.680      575.970       -0.920      884.680      575.640       -0.920 
     884.680      575.640        0.000      884.680      575.970        0.000      885.100      575.970        0.000      885.100      575.640        0.000      884.680      575.640       -0.920      884.680      575.970       -0.920      885.100      575.970       -0.920      885.100      575.640       -0.920 
     885.100      575.640        0.000      885.100      575.970        0.000      885.430      575.970        0.000      885.430      575.640        0.000      885.100      575.640       -0.920      885.100      575.970       -0.920      885.430      575.970       -0.920      885.430      575.640       -0.920 
[...]
CELL_DATA 3312
SCALARS Resistivity float
LOOKUP_TABLE default
 1.2330e+001
 1.2776e+001
 1.3476e+001
 1.4509e+001
 1.5936e+001
 1.7904e+001
 2.0500e+001
 2.3974e+001
 2.8526e+001
 3.4185e+001
 4.0566e+001
 4.6541e+001
 5.1304e+001
 5.6416e+001
 6.0925e+001
 6.2876e+001
 6.3029e+001
 6.0486e+001
 5.8401e+001
 5.6014e+001
 5.3708e+001
 5.1920e+001
 5.0453e+001
 4.9686e+001
 1.2271e+001
 1.2598e+001
 1.3208e+001
 1.4156e+001
 1.5473e+001
 1.7228e+001
 1.9595e+001
 2.2765e+001
 2.6893e+001
 3.2212e+001
 3.8375e+001
 4.4106e+001
 4.8568e+001
 5.3065e+001
 5.6918e+001
 5.9163e+001
 5.9901e+001
 5.8450e+001
 5.6974e+001
 5.5018e+001
 5.3259e+001
 5.1632e+001
 5.0384e+001
 4.9904e+001
 1.1962e+001
 1.2228e+001
 1.2756e+001
 1.3583e+001
 1.4731e+001
 1.6231e+001
 1.8221e+001
 2.0969e+001
 2.4733e+001
 2.9693e+001
 3.5566e+001
 4.0904e+001
 4.4538e+001
 4.8006e+001
 5.0778e+001
 5.3822e+001
 5.5893e+001
 5.5792e+001
 5.5360e+001
 5.4190e+001
 5.2876e+001
 5.1576e+001
 5.0661e+001
 5.0399e+001
 1.1451e+001
 1.1675e+001
 1.2128e+001
 1.2817e+001
 1.3717e+001
 1.4892e+001
 1.6452e+001
 1.8710e+001
 2.1989e+001
 2.6360e+001
 3.1430e+001
 3.5966e+001
 3.8388e+001
 4.0344e+001
 4.1047e+001
 4.6049e+001
 5.0523e+001
 5.2367e+001
 5.3359e+001
 5.3242e+001
 5.2605e+001
 5.1849e+001
 5.1131e+001
 5.0843e+001
 1.0762e+001
 1.0951e+001
 1.1344e+001
 1.1880e+001
 1.2471e+001
 1.3241e+001
 1.4345e+001
 1.6141e+001
 1.8848e+001
 2.2430e+001
 2.6479e+001
 2.9841e+001
 3.0882e+001
 3.0255e+001
 3.0479e+001
 3.8394e+001
 4.5087e+001
 4.8859e+001
 5.1367e+001
 5.2335e+001
 5.2457e+001
 5.2230e+001
 5.1660e+001
 5.1394e+001
 9.9240e+000
 1.0082e+001
 1.0406e+001
 1.0778e+001
 1.1019e+001
 1.1328e+001
 1.2007e+001
 1.3428e+001
 1.5650e+001
 1.8600e+001
 2.1963e+001
 2.4720e+001
 2.6149e+001
 2.7159e+001
 2.9110e+001
 3.4894e+001
 4.1341e+001
 4.6055e+001
 4.9614e+001
 5.1448e+001
 5.2219e+001
 5.2386e+001
 5.2124e+001
 5.2129e+001
 8.9582e+000
 9.0644e+000
 9.2787e+000
 9.4520e+000
 9.2918e+000
 9.0689e+000
 9.5319e+000
 1.0783e+001
 1.2762e+001
 1.5358e+001
 1.8265e+001
 2.0791e+001
 2.2841e+001
 2.4969e+001
 2.7768e+001
 3.2771e+001
 3.8746e+001
 4.3954e+001
 4.8218e+001
 5.0740e+001
 5.1990e+001
 5.2496e+001
 5.2416e+001
 5.2677e+001
 7.8954e+000
 7.9152e+000
 7.9479e+000
 7.8263e+000
 7.2183e+000
 6.4385e+000
 7.1482e+000
 8.4706e+000
 1.0362e+001
 1.2750e+001
 1.5403e+001
 1.7970e+001
 2.0456e+001
 2.3039e+001
 2.6397e+001
 3.1231e+001
 3.7100e+001
 4.2481e+001
 4.7331e+001
 5.0348e+001
 5.1867e+001
 5.2667e+001
 5.2783e+001
 5.3171e+001
 6.8569e+000
 6.7819e+000
 6.6188e+000
 6.1875e+000
 5.2775e+000
 4.3927e+000
 5.3841e+000
 6.7478e+000
 8.5466e+000
 1.0780e+001
 1.3303e+001
 1.5843e+001
 1.8377e+001
 2.1183e+001
 2.4862e+001
 2.9751e+001
 3.5854e+001
 4.1412e+001
 4.6980e+001
 5.0394e+001
 5.1987e+001
 5.2923e+001
 5.3085e+001
 5.3642e+001
 5.9477e+000
 5.8164e+000
 5.5665e+000
 5.1526e+000
 4.6227e+000
 4.2218e+000
 4.7957e+000
 5.8849e+000
 7.4560e+000
 9.4647e+000
 1.1766e+001
 1.4121e+001
 1.6420e+001
 1.9090e+001
 2.2520e+001
 2.7027e+001
 3.2863e+001
 3.9077e+001
 4.5484e+001
 4.9354e+001
 5.1173e+001
 5.2407e+001
 5.2841e+001
 5.3582e+001
 5.2275e+000
 5.0811e+000
 4.8376e+000
 4.5135e+000
 4.2342e+000
 4.1043e+000
 4.5720e+000
 5.4929e+000
 6.8812e+000
 8.7006e+000
 1.0780e+001
 1.2799e+001
 1.4555e+001
 1.6461e+001
 1.8997e+001
 2.2165e+001
 2.6431e+001
 3.4753e+001
 4.1947e+001
 4.6252e+001
 4.8596e+001
 5.0746e+001
 5.1822e+001
 5.3025e+001
 4.7011e+000
 4.5606e+000
 4.3436e+000
 4.1066e+000
 3.9700e+000
 4.0051e+000
 4.4866e+000
 5.3723e+000
 6.6721e+000
 8.3775e+000
 1.0241e+001
 1.1799e+001
 1.2697e+001
 1.3285e+001
 1.4709e+001
 1.6962e+001
 1.9622e+001
 2.7969e+001
 3.5599e+001
 4.0646e+001
 4.4336e+001
 4.7803e+001
 5.0005e+001
 5.1944e+001
 4.3497e+000
 4.2107e+000
 3.9995e+000
 3.7947e+000
 3.7169e+000
 3.8111e+000
 4.3355e+000
 5.2527e+000
 6.5806e+000
 8.3230e+000
 1.0200e+001
 1.1532e+001
 1.1673e+001
 1.0418e+001
 1.1918e+001
 1.4674e+001
 1.8446e+001
 2.4134e+001
 3.0177e+001
 3.5142e+001
 3.9817e+001
 4.4414e+001
 4.7926e+001
 5.0994e+001
 4.1457e+000
 4.0083e+000
 3.7894e+000
 3.5660e+000
 3.4789e+000
 3.5839e+000
 4.1381e+000
 5.0905e+000
 6.4881e+000
 8.3427e+000
 1.0477e+001
 1.2563e+001
 1.3707e+001
 1.2527e+001
 1.2512e+001
 1.4268e+001
 1.7115e+001
 2.0803e+001
 2.5090e+001
 2.9709e+001
 3.5023e+001
 4.0711e+001
 4.5921e+001
 5.0120e+001
 4.0824e+000
 3.9419e+000
 3.6855e+000
 3.3862e+000
 3.2230e+000
 3.3061e+000
 3.8940e+000
 4.8935e+000
 6.3408e+000
 8.2006e+000
 1.0196e+001
 1.1670e+001
 1.2294e+001
 1.2226e+001
 1.2432e+001
 1.3433e+001
 1.5190e+001
 1.7721e+001
 2.0842e+001
 2.5081e+001
 3.0826e+001
 3.7755e+001
 4.4412e+001
 4.9696e+001
 4.1459e+000
 4.0117e+000
 3.7163e+000
 3.2762e+000
 2.9697e+000
 3.0488e+000
 3.7169e+000
 4.7763e+000
 6.2440e+000
 8.0758e+000
 9.8117e+000
 1.0766e+001
 1.1062e+001
 1.1218e+001
 1.1523e+001
 1.2264e+001
 1.3329e+001
 1.5243e+001
 1.7591e+001
 2.1407e+001
 2.7351e+001
 3.5253e+001
 4.3193e+001
 4.9595e+001
 4.3083e+000
 4.2105e+000
 3.9216e+000
 3.2894e+000
 2.7844e+000
 3.0184e+000
 3.7996e+000
 4.9071e+000
 6.3995e+000
 8.1707e+000
 9.8248e+000
 1.0517e+001
 1.0481e+001
 1.0488e+001
 1.0871e+001
 1.1483e+001
 1.2255e+001
 1.3799e+001
 1.5628e+001
 1.8855e+001
 2.4568e+001
 3.3304e+001
 4.2438e+001
 4.9494e+001
 4.5004e+000
 4.4665e+000
 4.3134e+000
 3.9025e+000
 3.4247e+000
 3.6119e+000
 4.3209e+000
 5.4022e+000
 6.8833e+000
 8.6651e+000
 1.0399e+001
 1.1276e+001
 1.0784e+001
 1.0768e+001
 1.1142e+001
 1.1684e+001
 1.2369e+001
 1.3726e+001
 1.5257e+001
 1.7782e+001
 2.2681e+001
 3.1846e+001
 4.1619e+001
 4.8687e+001
 4.6536e+000
 4.6888e+000
 4.6900e+000
 4.5491e+000
 4.3038e+000
 4.4337e+000
 5.0471e+000
 6.0735e+000
 7.5673e+000
 9.4767e+000
 1.1607e+001
 1.3366e+001
 1.2637e+001
 1.2269e+001
 1.2314e+001
 1.2676e+001
 1.3315e+001
 1.4668e+001
 1.6046e+001
 1.7985e+001
 2.1561e+001
 3.1993e+001
 4.2738e+001
 5.0230e+001
 4.7222e+000
 4.8177e+000
 4.9426e+000
 5.0050e+000
 5.0013e+000
 5.2140e+000
 5.8040e+000
 6.8130e+000
 8.3041e+000
 1.0285e+001
 1.2567e+001
 1.4281e+001
 1.4214e+001
 1.4154e+001
 1.4100e+001
 1.4382e+001
 1.5128e+001
 1.6714e+001
 1.8575e+001
 2.1372e+001
 2.6411e+001
 3.8211e+001
 4.7695e+001
 5.4731e+001
 4.6848e+000
 4.8325e+000
 5.0505e+000
 5.2631e+000
 5.4653e+000
 5.8248e+000
 6.4720e+000
 7.4942e+000
 8.9604e+000
 1.0890e+001
 1.3099e+001
 1.4817e+001
 1.5372e+001
 1.5802e+001
 1.6102e+001
 1.6595e+001
 1.7721e+001
 1.9819e+001
 2.2849e+001
 2.7509e+001
 3.4371e+001
 4.5273e+001
 5.3571e+001
 5.9834e+001
 4.5415e+000
 4.7531e+000
 5.0495e+000
 5.3728e+000
 5.7189e+000
 6.2053e+000
 6.9350e+000
 7.9776e+000
 9.4056e+000
 1.1208e+001
 1.3217e+001
 1.4903e+001
 1.5907e+001
 1.6844e+001
 1.7679e+001
 1.8653e+001
 2.0414e+001
 2.3049e+001
 2.7138e+001
 3.2946e+001
 4.0227e+001
 5.0064e+001
 5.7496e+001
 6.2722e+001
 4.3081e+000
 4.6409e+000
 5.0063e+000
 5.3960e+000
 5.8192e+000
 6.3798e+000
 7.1668e+000
 8.2277e+000
 9.6227e+000
 1.1359e+001
 1.3243e+001
 1.4941e+001
 1.6161e+001
 1.7383e+001
 1.8601e+001
 2.0105e+001
 2.2428e+001
 2.5374e+001
 3.0118e+001
 3.6368e+001
 4.3691e+001
 5.3100e+001
 5.9706e+001
 6.4724e+001
 1.1596e+001
 1.2285e+001
 1.3017e+001
 1.3982e+001
 1.5316e+001
 1.7167e+001
 1.9577e+001
 2.2866e+001
 2.7341e+001
 3.3213e+001
 4.0283e+001
 4.6990e+001
 5.1844e+001
 5.7250e+001
 6.2305e+001
 6.4304e+001
 6.3841e+001
 6.0549e+001
 5.7772e+001
 5.4841e+001
 5.2269e+001
 5.0223e+001
 4.8425e+001
 4.7126e+001
 1.1762e+001
 1.2187e+001
 1.2791e+001
 1.3663e+001
 1.4880e+001
 1.6515e+001
 1.8648e+001
 2.1601e+001
 2.5747e+001
 3.1321e+001
 3.8211e+001
 4.4502e+001
 4.7911e+001
 5.1250e+001
 5.5628e+001
 5.9590e+001
 6.0584e+001
 5.8541e+001
 5.6341e+001
 5.4015e+001
 5.1786e+001
 4.9828e+001
 4.8491e+001
 4.7868e+001
 1.1545e+001
 1.1861e+001
 1.2381e+001
 1.3142e+001
 1.4179e+001
 1.5569e+001
 1.7371e+001
 1.9934e+001
 2.3746e+001
 2.9151e+001
 3.5949e+001
 4.1201e+001
 4.0209e+001
 3.7776e+001
 4.0478e+001
 5.0860e+001
 5.6458e+001
 5.6026e+001
 5.4905e+001
 5.3228e+001
 5.1413e+001
 4.9919e+001
 4.8970e+001
 4.8604e+001
 1.1052e+001
 1.1329e+001
 1.1804e+001
 1.2457e+001
 1.3282e+001
 1.4297e+001
 1.5705e+001
 1.7858e+001
 2.1263e+001
 2.6297e+001
 3.2513e+001
 3.5589e+001
 2.8640e+001
 1.7204e+001
 1.6354e+001
 3.7053e+001
 5.0035e+001
 5.2688e+001
 5.3164e+001
 5.2384e+001
 5.1197e+001
 5.0216e+001
 4.9486e+001
 4.9192e+001
 1.0369e+001
 1.0635e+001
 1.1112e+001
 1.1745e+001
 1.2399e+001
 1.2945e+001
 1.3842e+001
 1.5524e+001
 1.8425e+001
 2.2742e+001
 2.8146e+001
 3.0816e+001
 2.4457e+001
 1.4138e+001
 1.3158e+001
 3.2031e+001
 4.5461e+001
 4.9723e+001
 5.1487e+001
 5.1604e+001
 5.1159e+001
 5.0551e+001
 4.9899e+001
 4.9692e+001
 9.5678e+000
 9.8418e+000
 1.0399e+001
 1.1201e+001
 1.1887e+001
 1.1870e+001
 1.2077e+001
 1.3214e+001
 1.5567e+001
 1.9184e+001
 2.3866e+001
 2.7409e+001
 2.6472e+001
 2.4263e+001
 2.5991e+001
 3.5622e+001
 4.3769e+001
 4.7714e+001
 5.0194e+001
 5.1015e+001
 5.1102e+001
 5.0899e+001
 5.0385e+001
 5.0291e+001
 8.6550e+000
 8.9573e+000
 9.6770e+000
 1.0998e+001
 1.2357e+001
 1.1473e+001
 1.0547e+001
 1.1163e+001
 1.3099e+001
 1.6164e+001
 2.0108e+001
 2.3772e+001
 2.5858e+001
 2.7793e+001
 3.1046e+001
 3.6726e+001
 4.2403e+001
 4.6408e+001
 4.9431e+001
 5.0762e+001
 5.1047e+001
 5.1179e+001
 5.0874e+001
 5.0810e+001
 7.6796e+000
 7.9502e+000
 8.7207e+000
 1.0702e+001
 1.4257e+001
 1.1731e+001
 9.0458e+000
 9.3790e+000
 1.1146e+001
 1.3915e+001
 1.7447e+001
 2.1157e+001
 2.4403e+001
 2.7728e+001
 3.1778e+001
 3.6823e+001
 4.2104e+001
 4.6097e+001
 4.9640e+001
 5.1324e+001
 5.1405e+001
 5.1368e+001
 5.1134e+001
 5.1167e+001
 6.6810e+000
 6.8058e+000
 7.1897e+000
 8.2196e+000
 9.8923e+000
 7.2877e+000
 6.8074e+000
 7.7254e+000
 9.6133e+000
 1.2316e+001
 1.5800e+001
 1.9654e+001
 2.3451e+001
 2.7456e+001
 3.1907e+001
 3.7164e+001
 4.2293e+001
 4.5187e+001
 5.0098e+001
 5.2130e+001
 5.2035e+001
 5.1759e+001
 5.1235e+001
 5.1351e+001
 5.8095e+000
 5.7936e+000
 5.8028e+000
 5.8929e+000
 5.9729e+000
 5.3164e+000
 5.7049e+000
 6.8439e+000
 8.7479e+000
 1.1482e+001
 1.5134e+001
 1.9443e+001
 2.3761e+001
 2.7992e+001
 3.2145e+001
 3.6046e+001
 3.6816e+001
 3.7128e+001
 4.6763e+001
 5.1207e+001
 5.1492e+001
 5.1398e+001
 5.0893e+001
 5.1162e+001
 5.1131e+000
 5.0311e+000
 4.8919e+000
 4.7471e+000
 4.6812e+000
 4.5920e+000
 5.2247e+000
 6.4321e+000
 8.3693e+000
 1.1309e+001
 1.5575e+001
 2.1138e+001
 2.6399e+001
 3.0203e+001
 3.1495e+001
 2.9347e+001
 1.6937e+001
 1.6752e+001
 3.5342e+001
 4.6519e+001
 4.8966e+001
 4.9901e+001
 4.9893e+001
 5.0638e+001
 4.6083e+000
 4.5171e+000
 4.3486e+000
 4.1928e+000
 4.1656e+000
 4.3050e+000
 5.0283e+000
 6.3284e+000
 8.3848e+000
 1.1718e+001
 1.7364e+001
 2.6198e+001
 3.4133e+001
 3.6174e+001
 3.0721e+001
 2.3290e+001
 1.0122e+001
 1.1211e+001
 2.8121e+001
 4.0210e+001
 4.4561e+001
 4.7017e+001
 4.8312e+001
 4.9897e+001
 4.2503e+000
 4.1671e+000
 3.9938e+000
 3.8363e+000
 3.8289e+000
 4.0265e+000
 4.7920e+000
 6.1549e+000
 8.3868e+000
 1.2219e+001
 1.9850e+001
 3.6363e+001
 5.3241e+001
 5.0869e+001
 3.2692e+001
 2.5122e+001
 2.1442e+001
 2.2085e+001
 3.0472e+001
 3.6387e+001
 4.0327e+001
 4.3960e+001
 4.6823e+001
 4.9579e+001
 4.0375e+000
 3.9670e+000
 3.7971e+000
 3.6282e+000
 3.5921e+000
 3.7505e+000
 4.5164e+000
 5.8967e+000
 8.1695e+000
 1.1931e+001
 1.8462e+001
 2.8589e+001
 3.4324e+001
 3.1121e+001
 2.5691e+001
 2.2780e+001
 2.2907e+001
 2.3958e+001
 2.7496e+001
 3.1369e+001
 3.5906e+001
 4.1007e+001
 4.5702e+001
 4.9634e+001
 3.9663e+000
 3.9346e+000
 3.7943e+000
 3.6290e+000
 3.4748e+000
 3.4852e+000
 4.2242e+000
 5.5956e+000
 7.7925e+000
 1.0981e+001
 1.4577e+001
 1.6436e+001
 1.6876e+001
 1.6479e+001
 1.7005e+001
 1.7967e+001
 1.9138e+001
 2.0742e+001
 2.3049e+001
 2.6588e+001
 3.1866e+001
 3.8905e+001
 4.5336e+001
 5.0532e+001
 4.0531e+000
 4.1222e+000
 4.1810e+000
 4.2196e+000
 3.7276e+000
 3.4176e+000
 4.0878e+000
 5.4180e+000
 7.5436e+000
 1.0399e+001
 1.2575e+001
 1.1670e+001
 1.0847e+001
 1.0918e+001
 1.2700e+001
 1.4515e+001
 1.5769e+001
 1.7368e+001
 1.9215e+001
 2.2424e+001
 2.7916e+001
 3.7002e+001
 4.5407e+001
 5.1954e+001
 4.2989e+000
 4.5620e+000
 5.1656e+000
 6.5916e+000
 4.8510e+000
 3.8843e+000
 4.3513e+000
 5.6005e+000
 7.7064e+000
 1.0574e+001
 1.2718e+001
 1.0757e+001
 8.8906e+000
 9.1447e+000
 1.1253e+001
 1.2913e+001
 1.3941e+001
 1.5190e+001
 1.6382e+001
 1.8229e+001
 2.2118e+001
 3.2625e+001
 4.4283e+001
 5.2603e+001
 4.5720e+000
 4.9774e+000
 6.0328e+000
 8.7566e+000
 7.0251e+000
 5.0989e+000
 5.1234e+000
 6.2143e+000
 8.3269e+000
 1.1506e+001
 1.4833e+001
 1.3314e+001
 9.4148e+000
 1.0171e+001
 1.1974e+001
 1.2992e+001
 1.3644e+001
 1.4365e+001
 1.4541e+001
 1.3712e+001
 1.3426e+001
 2.1840e+001
 3.8583e+001
 5.0409e+001
 4.6771e+000
 5.0392e+000
 5.7730e+000
 6.8991e+000
 6.4609e+000
 5.5810e+000
 5.7725e+000
 6.8771e+000
 9.0389e+000
 1.2717e+001
 1.8597e+001
 2.5705e+001
 1.8632e+001
 1.5634e+001
 1.4566e+001
 1.4295e+001
 1.4443e+001
 1.4852e+001
 1.4041e+001
 1.0307e+001
 5.8370e+000
 1.0579e+001
 3.3250e+001
 4.9519e+001
 4.6155e+000
 4.9123e+000
 5.3640e+000
 5.8886e+000
 5.9332e+000
 5.7885e+000
 6.2679e+000
 7.4358e+000
 9.5320e+000
 1.2983e+001
 1.8303e+001
 2.3455e+001
 2.1251e+001
 1.9063e+001
 1.7095e+001
 1.6239e+001
 1.6380e+001
 1.7139e+001
 1.6968e+001
 1.3499e+001
 8.3069e+000
 1.4663e+001
 3.9269e+001
 5.4774e+001
 4.4321e+000
 4.7232e+000
 5.0798e+000
 5.4626e+000
 5.7316e+000
 5.9889e+000
 6.6661e+000
 7.8478e+000
 9.7399e+000
 1.2598e+001
 1.6429e+001
 1.9857e+001
 2.0212e+001
 1.9706e+001
 1.8703e+001
 1.8305e+001
 1.9030e+001
 2.0863e+001
 2.3265e+001
 2.4971e+001
 2.5910e+001
 3.8720e+001
 5.3938e+001
 6.2434e+001
 4.1391e+000
 4.4910e+000
 4.8889e+000
 5.3006e+000
 5.7013e+000
 6.1699e+000
 6.9225e+000
 8.0837e+000
 9.7444e+000
 1.2007e+001
 1.4794e+001
 1.7311e+001
 1.8546e+001
 1.9109e+001
 1.9289e+001
 1.9799e+001
 2.1384e+001
 2.4068e+001
 2.8182e+001
 3.3672e+001
 3.9853e+001
 5.1997e+001
 5.9583e+001
 6.3440e+001
 3.6375e+000
 4.2337e+000
 4.7129e+000
 5.1790e+000
 5.6524e+000
 6.1979e+000
 6.9901e+000
 8.1033e+000
 9.5977e+000
 1.1498e+001
 1.3758e+001
 1.5889e+001
 1.7431e+001
 1.8366e+001
 1.9177e+001
 2.0443e+001
 2.2597e+001
 2.5736e+001
 3.0417e+001
 3.6811e+001
 4.4293e+001
 5.4072e+001
 5.9082e+001
 5.9607e+001
 1.0038e+001
 1.1174e+001
 1.1975e+001
 1.2712e+001
 1.3510e+001
 1.4590e+001
 1.5803e+001
 1.7418e+001
 1.9714e+001
 2.3133e+001
 2.8224e+001
 3.5491e+001
 4.4236e+001
 5.2500e+001
 5.7491e+001
 5.7743e+001
 5.5624e+001
 5.2638e+001
 5.0338e+001
 4.8066e+001
 4.5960e+001
 4.4437e+001
 4.2401e+001
 3.9853e+001
 1.0686e+001
 1.1291e+001
 1.1875e+001
 1.2469e+001
 1.3094e+001
 1.3986e+001
 1.5003e+001
 1.6464e+001
 1.8586e+001
 2.2019e+001
 2.7803e+001
 3.6794e+001
 4.8659e+001
 6.0640e+001
 6.6701e+001
 6.2762e+001
 5.6805e+001
 5.2678e+001
 4.9766e+001
 4.7562e+001
 4.6015e+001
 4.4568e+001
 4.2923e+001
 4.1743e+001
 1.0597e+001
 1.1009e+001
 1.1418e+001
 1.1798e+001
 1.2166e+001
 1.2713e+001
 1.3364e+001
 1.4476e+001
 1.6385e+001
 1.9820e+001
 2.6690e+001
 4.0199e+001
 6.0102e+001
 8.5888e+001
 9.8236e+001
 7.5883e+001
 5.9613e+001
 5.2480e+001
 4.9031e+001
 4.6988e+001
 4.5590e+001
 4.4518e+001
 4.3414e+001
 4.2769e+001
 1.0070e+001
 1.0380e+001
 1.0620e+001
 1.0780e+001
 1.0822e+001
 1.0949e+001
 1.1238e+001
 1.1980e+001
 1.3510e+001
 1.6571e+001
 2.3691e+001
 4.2118e+001
 7.3369e+001
 1.4352e+002
 1.8754e+002
 9.1123e+001
 6.0131e+001
 5.0702e+001
 4.7309e+001
 4.5944e+001
 4.5003e+001
 4.4531e+001
 4.3755e+001
 4.3114e+001
 9.2687e+000
 9.5051e+000
 9.6154e+000
 9.5711e+000
 9.2935e+000
 8.9495e+000
 8.9333e+000
 9.4509e+000
 1.0611e+001
 1.2927e+001
 1.8237e+001
 3.1361e+001
 5.1366e+001
 8.2176e+001
 1.1271e+002
 6.8476e+001
 5.0897e+001
 4.6087e+001
 4.4676e+001
 4.4367e+001
 4.4227e+001
 4.4383e+001
 4.3913e+001
 4.3261e+001
 8.3095e+000
 8.5019e+000
 8.5274e+000
 8.3861e+000
 7.9019e+000
 6.9806e+000
 6.7488e+000
 7.2060e+000
 8.2508e+000
 1.0164e+001
 1.3892e+001
 2.1049e+001
 3.1066e+001
 4.2182e+001
 4.9619e+001
 4.4206e+001
 4.0348e+001
 4.0770e+001
 4.1846e+001
 4.2735e+001
 4.3428e+001
 4.3776e+001
 4.3679e+001
 4.3297e+001
 7.3276e+000
 7.4736e+000
 7.4633e+000
 7.4406e+000
 7.0898e+000
 5.3354e+000
 4.9310e+000
 5.4699e+000
 6.5948e+000
 8.3448e+000
 1.1077e+001
 1.5142e+001
 2.0251e+001
 2.5298e+001
 2.9029e+001
 3.1155e+001
 3.3301e+001
 3.7166e+001
 4.0021e+001
 4.1620e+001
 4.2760e+001
 4.3201e+001
 4.3076e+001
 4.2831e+001
 6.3982e+000
 6.4666e+000
 6.3897e+000
 6.6042e+000
 7.2624e+000
 4.2386e+000
 3.6113e+000
 4.3053e+000
 5.5548e+000
 7.2587e+000
 9.4917e+000
 1.2441e+001
 1.5835e+001
 1.9185e+001
 2.2385e+001
 2.6164e+001
 3.0735e+001
 3.6799e+001
 4.0301e+001
 4.1656e+001
 4.2337e+001
 4.2634e+001
 4.2445e+001
 4.2105e+001
 5.5933e+000
 5.5423e+000
 5.1494e+000
 4.6739e+000
 4.3187e+000
 2.0170e+000
 2.5515e+000
 3.5721e+000
 4.9054e+000
 6.5334e+000
 8.5089e+000
 1.0922e+001
 1.3707e+001
 1.6636e+001
 2.0073e+001
 2.5373e+001
 3.2897e+001
 4.2619e+001
 4.5017e+001
 4.3432e+001
 4.2419e+001
 4.1951e+001
 4.1613e+001
 4.1217e+001
 4.9955e+000
 4.8735e+000
 4.3665e+000
 3.6724e+000
 3.0043e+000
 2.1731e+000
 2.6193e+000
 3.4974e+000
 4.6747e+000
 6.0947e+000
 7.8530e+000
 1.0064e+001
 1.2725e+001
 1.5776e+001
 2.0010e+001
 2.8732e+001
 4.5428e+001
 6.4522e+001
 5.8465e+001
 4.7660e+001
 4.2832e+001
 4.1029e+001
 4.0489e+001
 4.0053e+001
 4.5681e+000
 4.4582e+000
 3.9922e+000
 3.3874e+000
 2.8936e+000
 2.5530e+000
 2.9289e+000
 3.6494e+000
 4.6336e+000
 5.8210e+000
 7.3120e+000
 9.5413e+000
 1.2698e+001
 1.5893e+001
 2.0342e+001
 3.3502e+001
 7.3809e+001
 1.2745e+002
 8.0425e+001
 5.0432e+001
 4.1534e+001
 3.9372e+001
 3.9175e+001
 3.8952e+001
 4.2426e+000
 4.1508e+000
 3.7525e+000
 3.2644e+000
 2.9084e+000
 2.7960e+000
 3.1648e+000
 3.8226e+000
 4.6776e+000
 5.7192e+000
 7.1782e+000
 1.0099e+001
 1.5456e+001
 1.8890e+001
 2.0517e+001
 3.0526e+001
 5.7363e+001
 9.1296e+001
 6.0566e+001
 4.2231e+001
 3.7404e+001
 3.7063e+001
 3.7946e+001
 3.8314e+001
 3.9870e+000
 3.9124e+000
 3.5244e+000
 3.0617e+000
 2.7574e+000
 2.6967e+000
 3.1113e+000
 3.8256e+000
 4.7507e+000
 5.9130e+000
 7.8345e+000
 1.3636e+001
 2.8890e+001
 3.2204e+001
 1.9882e+001
 2.1480e+001
 3.0336e+001
 3.8190e+001
 3.3662e+001
 3.0918e+001
 3.2318e+001
 3.4802e+001
 3.7253e+001
 3.8412e+001
 3.7575e+000
 3.6976e+000
 3.2879e+000
 2.7847e+000
 2.4463e+000
 2.3391e+000
 2.8051e+000
 3.6453e+000
 4.8248e+000
 6.3842e+000
 8.6282e+000
 1.2496e+001
 1.9217e+001
 1.7063e+001
 1.2476e+001
 1.3623e+001
 1.6483e+001
 2.0091e+001
 2.1530e+001
 2.4313e+001
 2.9234e+001
 3.4074e+001
 3.8112e+001
 3.9772e+001
 3.6299e+000
 3.6063e+000
 3.1800e+000
 2.6059e+000
 2.0922e+000
 1.8647e+000
 2.3993e+000
 3.3952e+000
 4.9034e+000
 7.0350e+000
 9.5946e+000
 1.1282e+001
 1.2583e+001
 1.1049e+001
 9.9242e+000
 1.0908e+001
 1.2315e+001
 1.4670e+001
 1.7030e+001
 2.1494e+001
 2.9127e+001
 3.7017e+001
 4.1995e+001
 4.3090e+001
 3.7069e+000
 3.8013e+000
 3.5388e+000
 3.1452e+000
 2.0496e+000
 1.5439e+000
 2.1448e+000
 3.2919e+000
 5.1825e+000
 8.2812e+000
 1.2717e+001
 1.6281e+001
 1.7012e+001
 1.4413e+001
 1.2012e+001
 1.1459e+001
 1.1731e+001
 1.3483e+001
 1.6131e+001
 2.2103e+001
 3.4504e+001
 4.8638e+001
 5.2263e+001
 5.0418e+001
 4.0434e+000
 4.4442e+000
 5.1326e+000
 7.8617e+000
 3.5620e+000
 1.9073e+000
 2.4001e+000
 3.6547e+000
 5.9527e+000
 1.0502e+001
 2.0391e+001
 3.6880e+001
 4.0241e+001
 2.8269e+001
 1.7996e+001
 1.3877e+001
 1.2986e+001
 1.4707e+001
 1.8283e+001
 2.7975e+001
 5.0942e+001
 8.3983e+001
 7.5355e+001
 6.4343e+001
 4.4911e+000
 5.1951e+000
 7.0540e+000
 1.4408e+001
 9.1108e+000
 3.9201e+000
 3.5543e+000
 4.7036e+000
 7.3948e+000
 1.3890e+001
 3.4077e+001
 9.7463e+001
 1.0330e+002
 5.9828e+001
 2.8235e+001
 1.8025e+001
 1.5852e+001
 1.8154e+001
 2.4353e+001
 4.1163e+001
 7.7686e+001